750
Atoms. MC Step: 2116000	Box Period	12.0374	12.0374	12.0374
	N	8.38966	5.80055	6.98344	-0.524518	0.150611	-0.623566	-0.559788
	O	8.00513	5.67553	6.68931	-0.76906	-0.25003	-0.588245
	O	8.4655	5.38921	7.25738	0.151672	-0.822682	0.547896
	O	8.06208	6.15451	7.11534	-0.655162	0.707933	0.263804
	O	8.82442	6.02022	6.87063	0.869526	0.439349	-0.225604
	N	4.58023	0.65505	7.51828	-0.272638	-0.709649	-0.402866	0.509672
	O	4.64379	1.01568	7.17782	0.127118	0.72125	-0.68091
	O	4.7554	0.751761	7.9765	0.350341	0.193422	0.916433
	O	4.7398	0.190872	7.61355	0.319135	-0.928356	0.190549
	O	4.0992	0.764306	7.59995	-0.962068	0.218512	0.163332
	N	10.8139	9.89865	8.99349	0.0574482	0.975599	0.123828	-0.171967
	O	11.3049	9.98912	8.96729	0.982097	0.180939	-0.0524081
	O	10.6531	9.8162	9.45969	-0.321641	-0.164891	0.932394
	O	10.7376	9.42655	8.84753	-0.15248	-0.944207	-0.291928
	O	10.5637	10.3056	8.84577	-0.500432	0.813809	-0.295436
	N	10.0519	7.46189	0.259011	0.772422	-0.599154	0.187662	0.0957151
	O	10.3357	7.13295	0.0116179	0.567772	-0.657892	-0.494786
	O	9.6676	7.14339	0.229006	-0.768524	-0.637001	-0.060011
	O	10.105	7.79587	11.9281	0.10623	0.667957	-0.736579
	O	10.2307	7.66421	0.679837	0.357617	0.404637	0.841653
	N	6.16427	7.26243	11.8269	-0.0910363	0.426951	-0.225572	0.870944
	O	5.66726	7.31613	11.8367	-0.994026	0.107391	0.0194972
	O	6.18664	7.61943	11.4776	0.0447415	0.714	-0.698715
	O	6.42607	6.85965	11.9656	0.523606	-0.805551	0.277352
	O	6.50129	7.37515	0.141289	0.674037	0.225442	0.703456
	N	5.42648	5.82017	8.39297	0.0237922	0.528588	-0.595284	0.604703
	O	5.14787	5.6117	8.75202	-0.557222	-0.416927	0.718106
	O	5.42514	6.31826	8.34941	-0.00269081	0.996194	-0.0871203
	O	5.30291	5.46922	8.05896	-0.247147	-0.701897	-0.668026
	O	5.80312	5.56904	8.60529	0.753281	-0.502243	0.42464
	N	9.78779	2.70037	4.07774	0.239664	0.629989	0.466445	-0.572804
	O	9.68541	3.02391	3.71054	-0.204768	0.647087	-0.734404
	O	9.79462	2.76526	4.57346	0.0136544	0.129777	0.991449
	O	10.0492	2.41557	3.76066	0.522879	-0.569595	-0.63416
	O	9.33743	2.63957	4.28626	-0.900718	-0.121599	0.417039
	N	6.1705	6.73285	2.99839	0.285103	-0.771464	-0.511835	-0.248163
	O	6.35243	6.72081	3.46397	0.363856	-0.0240752	0.931144
	O	6.0552	6.24665	2.98047	-0.230606	-0.972387	-0.0358483
	O	6.52911	6.82388	2.66207	0.717214	0.182061	-0.67265
	O	5.83388	7.01184	2.75581	-0.673241	0.55799	-0.485175
	N	6.17568	8.13045	4.71314	-0.976931	0.0412791	-0.208439	-0.0213133
	O	6.5289	8.09499	4.36103	0.706437	-0.0709199	-0.704213
	O	5.69856	7.98097	4.71068	-0.954254	-0.298958	-0.00490689
	O	6.44387	8.44987	4.9889	0.536376	0.63884	0.551529
	O	6.25765	7.89603	5.1471	0.163928	-0.468848	0.867934
	N	6.1378	2.64611	8.50991	-0.128632	0.559398	0.799014	-0.179176
	O	5.98551	3.02067	8.80404	-0.304575	0.74912	0.588263
	O	6.45513	2.3272	8.72808	0.634655	-0.637831	0.436331
	O	6.41501	2.53235	8.10965	0.554418	-0.22753	-0.800532
	O	5.68963	2.43227	8.45146	-0.896341	-0.427679	-0.116893
	N	0.528359	9.43871	5.50942	0.392373	0.231686	0.851653	0.258944
	O	0.108684	9.70644	5.46258	-0.839348	0.535462	-0.0936708
	O	0.528464	9.25052	5.97265	0.000210737	-0.376378	0.926466
	O	0.80526	9.79948	5.71719	0.553803	0.721542	0.415548
	O	0.726998	9.36544	5.05646	0.397279	-0.146538	-0.905923
	N	2.64917	1.70813	6.11699	0.308511	-0.170308	0.799334	-0.486704
	O	2.20368	1.49199	6.18645	-0.890978	-0.432274	0.138913
	O	2.7094	2.18004	6.27085	0.120446	0.943822	0.307721
	O	2.75952	1.90507	5.67085	0.220683	0.393873	-0.89228
	O	2.81925	1.26645	6.27822	0.340152	-0.883357	0.322454
	N	8.47844	9.25485	2.08303	-0.684187	-0.179676	-0.302988	-0.638595
	O	8.18075	9.59994	1.87737	-0.59538	0.690173	-0.41132
	O	8.173	8.87249	1.98052	-0.610883	-0.764713	-0.205025
	O	8.45102	9.48618	2.52546	-0.0548476	0.462651	0.884842
	O	8.94134	9.07009	2.12292	0.925794	-0.369513	0.0797809
	N	9.45816	1.41126	8.71285	0.0403681	-0.734295	0.614779	0.285005
	O	9.61331	0.961911	8.55789	0.310315	-0.898696	-0.309918
	O	9.49499	1.58013	9.18202	0.0736759	0.337732	0.938354
	O	8.975	1.2853	8.73919	-0.966313	-0.251919	0.0526795
	O	9.77534	1.46106	8.32956	0.634376	0.0996014	-0.766581
	N	8.25812	2.43414	11.9608	0.503932	-0.674904	0.100482	0.529585
	O	8.66564	2.43833	11.6712	0.815056	0.0083777	-0.579322
	O	8.21486	1.97312	0.112127	-0.0865153	-0.922041	0.3773
	O	7.76552	2.4759	11.886	-0.985192	0.0835197	-0.149738
	O	8.5503	2.78395	0.12905	0.584357	0.699632	0.411147
	N	0.957254	7.49121	4.27945	-0.191678	0.866798	-0.0630114	-0.456015
	O	1.43899	7.40521	4.17681	0.963473	-0.171996	-0.205272
	O	0.954274	7.39032	4.76915	-0.00595972	-0.201769	0.979415
	O	0.540866	7.43637	4.00813	-0.832774	-0.109677	-0.54264
	O	0.717911	7.89013	4.09622	-0.478686	0.797857	-0.366447
	N	1.54127	5.49469	9.35832	-0.628464	0.589964	-0.389296	0.324692
	O	1.60673	5.01839	9.22102	0.130914	-0.952606	-0.274597
	O	1.05938	5.62674	9.33977	-0.963779	0.26411	-0.0370855
	O	1.7127	5.49938	8.88865	0.342858	0.00938087	-0.93934
	O	1.71596	5.75566	9.74739	0.349385	0.521939	0.778145
	N	10.5345	8.57491	1.89207	0.134063	-0.215503	0.738357	-0.624831
	O	10.0765	8.77273	1.92457	-0.916103	0.395638	0.0650036
	O	10.8427	8.95411	1.99798	0.616423	0.758384	0.211839
	O	10.4593	8.3506	1.45159	-0.150455	-0.448636	-0.880959
	O	10.6607	8.1695	2.1561	0.252406	-0.810828	0.528061
	N	7.12444	11.0658	7.51819	-0.136769	0.981722	-0.102144	0.0841652
	O	7.48705	11.0261	7.86015	0.72523	-0.0793949	0.683914
	O	6.659	10.9173	7.62452	-0.930868	-0.297092	0.212652
	O	7.19352	10.8571	7.06914	0.138166	-0.417505	-0.898109
	O	7.09924	11.5588	7.43822	-0.0504023	0.985838	-0.159949
	N	5.43893	4.59176	11.9366	-0.678084	-0.460852	0.495567	-0.286759
	O	5.8252	4.85418	0.077948	0.772541	0.524843	0.35738
	O	5.31636	4.76114	11.4824	-0.245128	0.338769	-0.908377
	O	4.96423	4.59546	0.0562518	-0.949398	0.00740994	0.313988
	O	5.71019	4.17785	12.008	0.542516	-0.827823	0.142782
	N	11.102	10.7875	5.30805	0.398254	0.212009	0.33637	-0.826621
	O	10.8347	10.9266	4.90909	-0.534734	0.278195	-0.797914
	O	11.4322	11.163	5.30102	0.6603	0.750871	-0.0140602
	O	11.4676	10.4475	5.33562	0.731102	-0.680036	0.0551498
	O	10.642	10.8352	5.498	-0.920105	0.0952784	0.379906
	N	3.87181	3.39373	9.60851	0.131429	0.622431	-0.694784	0.335531
	O	3.57027	3.33437	10.0029	-0.603082	-0.11873	0.788793
	O	4.03493	3.85323	9.7192	0.326245	0.919	0.221367
	O	3.44642	3.3342	9.35258	-0.850769	-0.119077	-0.511872
	O	4.36767	3.35017	9.56133	0.991717	-0.0871348	-0.0943641
	N	1.91684	5.24352	4.19398	0.435582	0.195835	0.547233	0.687352
	O	1.57745	5.37285	3.85035	-0.678784	0.258665	-0.687273
	O	1.89477	4.75979	4.31858	-0.0441401	-0.967447	0.249193
	O	1.8742	5.27052	4.69143	-0.0852774	0.0540118	0.994892
	O	2.23464	5.23551	3.80806	0.635601	-0.0160032	-0.771852
	N	1.92594	11.3033	4.01593	0.218527	0.972674	-0.0323705	-0.0714352
	O	2.40842	11.431	4.04595	0.964957	0.255445	0.0600422
	O	1.49204	11.473	4.19744	-0.867789	0.339354	0.363018
	O	1.73611	10.8448	3.95468	-0.379662	-0.916979	-0.122503
	O	1.89536	11.3573	3.5198	-0.0611554	0.108034	-0.992264
	N	9.51413	4.01241	0.702295	-0.330081	-0.0667788	0.494218	0.801458
	O	9.23791	3.65232	0.492454	-0.552455	-0.720181	-0.419683
	O	9.99582	4.10857	0.608874	0.963379	0.192328	-0.186842
	O	9.43747	4.04392	1.19538	-0.153325	0.0630231	0.986164
	O	9.3598	4.47407	0.588066	-0.308672	0.923325	-0.228458
	N	3.33316	1.7736	0.566795	-0.370751	0.337621	-0.83751	0.2171
	O	2.96925	1.43445	0.617175	-0.727833	-0.678312	0.10076
	O	3.39786	2.02228	0.995719	0.129403	0.497346	0.857847
	O	3.25749	2.13425	0.228848	-0.151338	0.721294	-0.675894
	O	3.78073	1.57444	0.666893	0.895125	-0.398337	0.200196
	N	0.208919	2.74918	8.87614	0.409323	0.376485	0.815126	0.162124
	O	11.9667	3.16204	8.83867	-0.5591	0.825706	-0.0749422
	O	0.212466	2.48094	9.29808	0.00709297	-0.53648	0.843883
	O	0.662907	2.95854	8.86816	0.907976	0.418719	-0.0159561
	O	0.0251765	2.4967	8.48564	-0.367485	-0.504972	-0.780998
	N	5.21634	10.0033	1.74105	-0.405017	-0.0958425	0.418358	0.807312
	O	5.20057	9.50423	1.71558	-0.031538	-0.998203	-0.0509573
	O	5.53121	10.2259	1.42276	0.629739	0.445186	-0.636583
	O	5.44805	9.92293	2.17677	0.463414	-0.160804	0.87143
	O	4.89148	10.3834	1.73986	-0.649722	0.760168	-0.00238966
	N	3.44208	2.10597	4.16126	0.455198	-0.755024	0.471169	0.0270877
	O	3.48834	1.60949	4.19823	0.0925229	-0.992961	0.0739481
	O	3.22119	2.12131	4.60956	-0.441779	0.0306804	0.896599
	O	3.43838	2.28173	3.69318	-0.00738681	0.35151	-0.936155
	O	3.86543	2.37166	4.1478	0.846712	0.531371	-0.0269191
	N	7.20472	6.55435	4.96834	0.547189	0.437296	-0.267597	0.661625
	O	7.26456	7.03276	5.10077	0.119683	0.956833	0.264852
	O	6.95507	6.57088	4.53544	-0.499301	0.0330631	-0.865797
	O	6.87952	6.17468	4.97859	-0.650389	-0.759324	0.0205002
	O	7.6874	6.44583	5.04077	0.965356	-0.217028	0.144865
	N	6.55687	8.72905	10.3895	0.577396	-0.115415	0.574733	-0.568309
	O	6.261	8.61583	10.0026	-0.591726	-0.226435	-0.773684
	O	6.44781	9.10622	10.6991	-0.218111	0.754351	0.619179
	O	7.03923	8.6986	10.2614	0.964721	-0.0608923	-0.256136
	O	6.37026	8.4125	10.7286	-0.373224	-0.633105	0.678146
	N	11.5215	5.61799	7.08126	-0.878307	0.26434	0.170887	-0.359858
	O	11.949	5.81353	6.91085	0.854932	0.391076	-0.340809
	O	11.5396	5.31425	6.6845	0.0360879	-0.607485	-0.793511
	O	11.2169	5.99718	6.96546	-0.609289	0.758375	-0.231591
	O	11.4293	5.35235	7.4947	-0.184409	-0.531279	0.826883
	N	5.88542	0.470193	2.55046	0.25677	-0.336562	-0.159194	0.891882
	O	5.69543	0.623	2.11394	-0.379989	0.305614	-0.873046
	O	6.35898	0.381939	2.68445	0.947121	-0.176508	0.267967
	O	5.43433	0.26063	2.49947	-0.902181	-0.419126	-0.101991
	O	5.97093	0.69641	2.98809	0.171022	0.452434	0.875246
	N	8.48395	7.25101	6.65584	-0.0525314	0.792867	0.425127	-0.433439
	O	8.68043	7.71009	6.63058	0.392963	0.918166	-0.0505178
	O	8.60234	7.1735	7.1354	0.236779	-0.155004	0.959119
	O	8.57581	6.86133	6.35631	0.18373	-0.779343	-0.599055
	O	8.01617	7.38328	6.77285	-0.935542	0.264552	0.234037
	N	5.03287	2.32102	6.36461	0.0407496	-0.466087	0.0958786	0.878584
	O	4.92224	2.37951	5.88053	-0.221267	0.116982	-0.968171
	O	5.52906	2.27958	6.4102	0.992379	-0.0828803	0.0911819
	O	4.87397	1.89265	6.56772	-0.317798	-0.856737	0.40621
	O	4.99788	2.81465	6.43605	-0.069994	0.987261	0.142884
	N	3.87819	6.94398	6.83037	-0.351185	0.492322	-0.115002	-0.788075
	O	3.94788	7.03931	6.34451	0.139372	0.190657	-0.971713
	O	4.2698	6.7214	7.04741	0.783212	-0.445152	0.434073
	O	3.50061	6.65169	6.9787	-0.755156	-0.584576	0.296666
	O	3.96496	7.40221	7.01064	0.173534	0.916459	0.36054
	N	0.119361	3.28086	2.35414	-0.622882	-0.583742	0.342807	-0.392106
	O	0.259395	3.72679	2.53172	0.280069	0.891861	0.35517
	O	11.9685	3.5281	1.96241	-0.376411	0.494483	-0.783454
	O	11.9427	2.87631	2.55547	-0.428055	-0.809093	0.402664
	O	0.495874	2.97501	2.23291	0.753026	-0.611694	-0.242453
	N	5.28978	1.01097	0.581869	0.429409	-0.616682	0.481212	0.451383
	O	5.55736	0.771928	0.233642	0.535155	-0.47808	-0.696455
	O	5.38543	0.863949	1.0501	0.191302	-0.294038	0.936454
	O	4.82149	1.18104	0.624082	-0.936573	0.34015	0.0844268
	O	5.59246	1.38733	0.452495	0.605354	0.752726	-0.258747
	N	11.714	4.35538	0.567009	-0.890576	0.430779	-0.136713	0.0511154
	O	11.9863	3.96872	0.404744	0.544648	-0.77333	-0.324529
	O	11.2176	4.31069	0.606318	-0.992889	-0.089389	0.0786187
	O	11.7061	4.74524	0.254047	-0.0158735	0.779722	-0.625924
	O	11.7469	4.13162	1.01293	0.0658658	-0.447525	0.891843
	N	7.10027	1.02254	7.48074	-0.0513774	0.550671	0.766665	0.326108
	O	6.75527	1.17686	7.80808	-0.690016	0.308651	0.654685
	O	7.01267	0.530271	7.48226	-0.175206	-0.984527	0.00305545
	O	7.4986	1.30467	7.37239	0.796645	0.564275	-0.216681
	O	6.80281	0.977732	7.08135	-0.594928	-0.0896069	-0.798768
	N	4.88979	4.50857	6.76784	0.645322	-0.690787	0.179684	-0.272188
	O	4.92321	4.00971	6.77211	0.0668388	-0.997727	0.00852504
	O	4.43732	4.323	6.66375	-0.904938	-0.371143	-0.208184
	O	5.00467	4.57651	6.28598	0.229758	0.13588	-0.963716
	O	5.05804	4.72512	7.18593	0.336504	0.433107	0.836172
	N	8.10029	0.813215	5.73242	0.869115	-0.0435833	-0.442367	-0.216911
	O	8.41214	0.430937	5.81375	0.623693	-0.764555	0.162671
	O	8.2392	0.696819	5.26642	0.277819	-0.232791	-0.932
	O	7.94354	1.24622	5.92719	-0.313501	0.866005	0.389553
	O	7.79191	0.587907	6.05512	-0.616759	-0.450616	0.645409
	N	11.0142	1.743	7.40744	-0.350391	-0.416918	-0.592114	0.593976
	O	10.802	2.0083	7.04059	-0.424456	0.530588	-0.733699
	O	11.358	1.87863	7.74424	0.687516	0.271255	0.673604
	O	11.4457	1.53383	7.26567	0.862891	-0.418351	-0.283553
	O	10.6202	1.58024	7.66873	-0.788	-0.325517	0.522585
	N	10.107	11.756	3.79653	-0.583581	-0.492723	-0.00554811	0.645466
	O	10.2924	11.6662	3.34094	0.370784	-0.179609	-0.911186
	O	10.2399	0.184488	3.9205	0.265847	0.931589	0.247926
	O	10.2529	11.4716	4.181	0.291833	-0.568829	0.768939
	O	9.6097	11.7682	3.74585	-0.994555	0.0242348	-0.10136
	N	9.90642	11.5052	8.17219	-0.519346	0.849338	-0.084457	0.0420891
	O	10.1027	11.1173	8.41915	0.392563	-0.775846	0.493921
	O	9.50177	11.339	8.41431	-0.809308	-0.332452	0.484249
	O	9.75543	11.4939	7.69566	-0.30198	-0.022488	-0.953049
	O	9.79699	11.9684	8.32524	-0.218871	0.926497	0.306103
	N	3.21184	4.92256	2.68434	0.684264	-0.487616	0.538287	-0.0652692
	O	3.18155	4.43226	2.59112	-0.0605784	-0.9806	-0.186427
	O	2.82626	5.04314	2.97894	-0.771157	0.241167	0.589199
	O	3.34585	5.33103	2.429	0.268013	0.81694	-0.510664
	O	3.6962	4.89059	2.80424	0.968714	-0.0639328	0.239805
	N	9.20674	9.23716	6.30907	-0.553033	-0.744224	0.154969	-0.340983
	O	9.38333	9.60217	6.60161	0.353189	0.730012	0.585098
	O	8.75235	9.32577	6.12016	-0.908764	0.177203	-0.377819
	O	9.13148	8.77061	6.47236	-0.150515	-0.933108	0.32658
	O	9.45967	8.97143	5.96935	0.505876	-0.531468	-0.679434
	N	0.881533	0.867376	6.76033	0.743055	-0.365161	-0.144952	-0.54177
	O	1.0273	0.406957	6.63084	0.291531	-0.920838	-0.258972
	O	0.694759	0.863644	6.29654	-0.373549	-0.00746313	-0.92758
	O	1.31552	1.07686	6.62702	0.867972	0.418972	-0.266623
	O	0.446682	1.04199	6.93472	-0.869703	0.349238	0.348784
	N	7.07973	4.66759	8.95505	-0.347966	-0.271932	-0.727447	0.525161
	O	6.74805	5.00814	8.80008	-0.66336	0.681091	-0.30995
	O	7.35107	4.84171	9.33723	0.542676	0.348241	0.76435
	O	7.49101	4.51959	8.71227	0.822558	-0.296015	-0.485564
	O	6.74463	4.36527	9.17024	-0.670213	-0.604642	0.430375
	N	9.28328	4.31868	2.7169	-0.26231	0.830106	-0.34356	0.352256
	O	9.36509	3.93571	3.02778	0.163624	-0.765929	0.621755
	O	8.86526	4.59191	2.74148	-0.836042	0.546459	0.0491499
	O	9.42068	4.25312	2.24064	0.274803	-0.131119	-0.952518
	O	9.56961	4.63115	2.98219	0.57267	0.624936	0.53057
	N	0.41332	8.41494	7.36847	0.701247	0.396674	0.583757	0.100647
	O	0.358799	8.66484	6.93884	-0.10904	0.499792	-0.859255
	O	11.9769	8.31853	7.49594	-0.947534	-0.192836	0.25494
	O	0.810824	8.40042	7.67142	0.795008	-0.0290422	0.605903
	O	0.492347	7.99116	7.11516	0.158055	-0.847559	-0.506618
	N	1.43249	7.65124	10.2002	-0.379451	0.125616	-0.84063	0.365486
	O	1.0088	7.42247	10.0655	-0.847384	-0.457546	-0.26943
	O	1.51452	8.08006	10.4439	0.164056	0.857646	0.48737
	O	1.62724	7.84915	9.78436	0.389492	0.395826	-0.831636
	O	1.72029	7.31499	10.4328	0.575608	-0.672493	0.465219
	N	8.35091	8.64364	9.4456	-0.0333947	0.1238	-0.989513	-0.066494
	O	7.97193	8.62349	9.77113	-0.757954	-0.0403063	0.651061
	O	8.71942	8.76412	9.76133	0.737022	0.240971	0.631452
	O	8.34805	9.1401	9.38632	-0.00570985	0.992931	-0.118558
	O	8.36333	8.2542	9.13225	0.0248474	-0.778872	-0.626691
	N	5.92325	3.2684	9.96881	-0.775356	0.412208	-0.28621	0.383395
	O	5.85996	2.79399	9.82414	-0.126583	-0.948819	-0.289344
	O	5.45703	3.29231	9.78972	-0.932431	0.0478173	-0.35817
	O	6.10694	3.65358	9.70825	0.367382	0.770369	-0.521116
	O	5.91393	3.14178	10.4524	-0.0186343	-0.253228	0.967227
	N	7.94637	7.72697	3.52952	0.748347	-0.504306	-0.427303	-0.055349
	O	8.29049	7.77174	3.88949	0.688247	0.0895446	0.719929
	O	7.75292	7.30674	3.33982	-0.386893	-0.840458	-0.379399
	O	7.96386	8.10385	3.20142	0.034983	0.753769	-0.656208
	O	7.51371	7.83983	3.75329	-0.865308	0.225719	0.447541
	N	2.01789	3.65889	8.47704	-0.819078	-0.0968626	0.464973	0.321761
	O	2.45981	3.52026	8.66542	0.883845	-0.277251	0.376762
	O	2.18778	3.72509	8.01147	0.339779	0.132404	-0.931139
	O	1.83188	4.08805	8.65372	-0.37202	0.858333	0.353363
	O	1.6075	3.39539	8.58726	-0.820781	-0.526995	0.220443
	N	5.88076	0.601293	5.90777	0.721031	-0.479312	0.472887	-0.163561
	O	5.76496	0.139261	5.75573	-0.231597	-0.924064	-0.304086
	O	5.41766	0.718463	6.05545	-0.9262	0.23434	0.295362
	O	5.99453	0.946051	5.56397	0.227533	0.689516	-0.687602
	O	6.13819	0.756178	6.30745	0.514846	0.309769	0.79936
	N	10.9865	4.4543	8.71733	0.81938	-0.566802	-0.0076432	-0.0854004
	O	11.2819	4.05084	8.7203	0.590649	-0.806907	0.00594622
	O	10.4957	4.36165	8.6944	-0.981611	-0.185305	-0.0458563
	O	11.1752	4.71345	8.33361	0.377371	0.518301	-0.767434
	O	10.7917	4.46508	9.17766	-0.389766	0.0215557	0.920662
	N	2.25195	11.318	9.42849	-0.266933	-0.0876444	0.0075425	0.959692
	O	1.88748	11.0188	9.26233	-0.728953	-0.598499	-0.332306
	O	2.70989	11.4881	9.32196	0.91588	0.340256	-0.213047
	O	2.4078	10.9693	9.75115	0.311689	-0.697428	0.645325
	O	1.93449	11.5063	9.76578	-0.63493	0.376558	0.674587
	N	4.2073	1.98897	8.51823	0.5808	-0.725737	-0.341064	0.140188
	O	4.6812	2.14326	8.55835	0.947805	0.308588	0.0802396
	O	4.27444	1.49415	8.5436	0.134287	-0.989642	0.0507495
	O	4.3568	2.20846	8.09459	0.299006	0.438987	-0.847281
	O	3.79674	2.19849	8.712	-0.821115	0.41903	0.387537
	N	9.88244	9.06142	10.7789	0.335656	-0.201262	0.683551	0.616106
	O	9.51614	8.99843	10.4445	-0.732591	-0.125967	-0.668912
	O	9.99199	8.70003	11.1066	0.219112	-0.722782	0.65542
	O	9.75929	9.48347	11.0171	-0.2463	0.844103	0.476263
	O	10.1821	9.27745	10.442	0.59942	0.432072	-0.673803
	N	0.988277	6.76711	6.38509	-0.314119	0.478979	-0.0403158	-0.818708
	O	0.901541	6.99708	5.94967	-0.173472	0.459941	-0.87084
	O	1.32322	6.42763	6.53531	0.669879	-0.678966	0.300446
	O	0.650686	6.43814	6.55186	-0.675183	-0.657935	0.333542
	O	0.826405	7.20924	6.55336	-0.323745	0.884269	0.336537
	N	8.65787	2.25395	7.06142	0.686288	0.225646	0.393517	-0.56854
	O	8.57068	2.40918	6.59419	-0.174388	0.310453	-0.934456
	O	8.66048	2.64671	7.37083	0.00521446	0.785506	0.618832
	O	9.14192	2.13241	7.09178	0.968101	-0.243092	0.0607219
	O	8.34146	1.87173	7.12294	-0.632829	-0.76445	0.123058
	N	6.94655	4.46137	4.218	-0.45004	0.162349	-0.813516	0.330603
	O	6.53055	4.43453	3.94191	-0.831996	-0.0536821	-0.552178
	O	6.83986	4.70411	4.64191	-0.213376	0.485474	0.847813
	O	7.09643	4.70897	3.81028	0.299765	0.495193	-0.815429
	O	7.21415	4.07608	4.39102	0.535204	-0.770595	0.346036
	N	0.891687	10.1697	8.54052	-0.510972	0.271582	-0.234976	-0.780984
	O	0.978504	10.3376	8.07763	0.173633	0.335815	-0.925786
	O	1.20141	9.78418	8.46682	0.619453	-0.771072	-0.147398
	O	0.44786	10.087	8.7554	-0.887654	-0.165446	0.429765
	O	1.2256	10.4921	8.72642	0.667819	0.644811	0.371801
	N	11.9605	1.53139	10.713	0.775163	0.248928	-0.53318	0.229949
	O	0.189532	1.81366	11.0282	0.532859	0.56454	0.630361
	O	0.041728	1.82416	10.3255	0.237252	0.585553	-0.775138
	O	11.498	1.71984	10.7383	-0.924872	0.376909	0.0505097
	O	0.127656	1.07605	10.7418	0.409108	-0.91067	0.0575431
	N	1.52402	9.37236	3.7749	0.415478	0.574866	-0.428151	-0.559995
	O	1.84883	9.00418	3.68034	0.649618	-0.73636	-0.189128
	O	1.6062	9.83947	3.93321	0.164351	0.934207	0.316615
	O	1.29931	9.4135	4.21966	-0.449414	0.0822845	0.889526
	O	1.14305	9.41311	3.45366	-0.761951	0.0815002	-0.642487
	N	6.4938	5.52607	6.03025	-0.831764	0.319598	-0.339869	-0.300857
	O	6.6116	5.33605	5.58302	0.235592	-0.380025	-0.89447
	O	6.2314	5.25893	6.3616	-0.524791	-0.534267	0.662687
	O	6.39635	6.00666	6.12791	-0.194904	0.961179	0.195314
	O	6.9569	5.51448	6.2184	0.92621	-0.0231776	0.376296
	N	3.25676	6.75957	1.79631	0.369997	0.856186	0.171185	-0.3174
	O	3.66371	7.04153	1.86623	0.8139	0.563928	0.139828
	O	3.08294	7.01912	2.18672	-0.347649	0.519103	0.780815
	O	3.35634	6.28934	1.93405	0.199147	-0.940458	0.275464
	O	2.82614	6.77909	1.54297	-0.861249	0.0390533	-0.506681
	N	1.39175	10.8407	6.71855	0.609062	0.74916	-0.169703	-0.197493
	O	1.84088	11.0603	6.72592	0.898253	0.439231	0.0147327
	O	1.31598	11.3335	6.68102	-0.15155	0.985596	-0.0750596
	O	1.32522	10.6641	7.18155	-0.133051	-0.353326	0.92599
	O	1.24417	10.5598	6.33219	-0.295158	-0.561943	-0.772723
	N	3.18974	11.8721	6.64768	0.660417	0.587796	0.32403	0.336675
	O	3.14111	0.32526	6.56357	-0.0972687	0.98094	-0.168214
	O	2.77935	11.5865	6.64516	-0.820778	-0.571225	-0.00503779
	O	3.29878	11.807	7.13127	0.218089	-0.13034	0.967186
	O	3.41597	11.709	6.23272	0.452466	-0.326377	-0.829911
	N	10.2015	3.10708	6.08892	-0.40138	-0.111084	0.0929468	0.904387
	O	10.0238	2.91655	5.66219	-0.355486	-0.381071	-0.853472
	O	10.6567	3.29337	5.99907	0.91044	0.372564	-0.17971
	O	10.3526	2.7261	6.37533	0.302118	-0.76197	0.572823
	O	9.72447	3.23925	6.15932	-0.9541	0.264335	0.140787
	N	5.14504	3.3421	3.86316	-0.216588	0.366855	0.118181	0.896962
	O	4.78107	3.00033	3.88996	-0.727943	-0.683539	0.0536076
	O	5.16533	3.31075	3.36456	0.0405794	-0.062688	-0.997208
	O	5.42165	2.96745	4.04515	0.553221	-0.749306	0.363988
	O	5.30476	3.75038	4.10357	0.319436	0.816557	0.480827
	N	1.55787	3.38921	4.94102	0.217915	0.330746	0.546194	0.7381
	O	1.10272	3.56061	5.05702	-0.91031	0.342791	0.232012
	O	1.78303	2.94639	4.88433	0.450307	-0.885647	-0.113369
	O	1.93567	3.44784	5.26325	0.755593	0.117255	0.644462
	O	1.6773	3.83822	4.75629	0.238847	0.898026	-0.369462
	N	4.33432	6.96869	4.75961	0.752775	-0.496391	0.0129418	-0.432156
	O	4.49761	6.49643	4.74213	0.326575	-0.944524	-0.0349765
	O	3.96345	6.99567	4.42536	-0.741746	0.0539543	-0.668507
	O	4.69864	7.31001	4.78735	0.728651	0.682635	0.0554761
	O	4.12872	6.94445	5.21474	-0.411208	-0.0484836	0.910251
	N	2.96641	3.67326	6.49897	0.242519	0.24292	-0.878922	0.331167
	O	2.66665	3.7241	6.8959	-0.599528	0.101683	0.793868
	O	3.37557	3.92639	6.63502	0.81833	0.506262	0.272093
	O	2.67633	3.54958	6.11095	-0.580156	-0.247353	-0.776038
	O	2.94967	3.18373	6.39854	-0.0334864	-0.979047	-0.200862
	N	5.60147	7.88368	8.57125	-0.269194	0.871059	0.396187	0.108751
	O	5.76703	8.04383	9.01503	0.331121	0.320304	0.887561
	O	5.46212	7.40388	8.55186	-0.278696	-0.959596	-0.0387803
	O	5.86771	7.83205	8.15119	0.532481	-0.103266	-0.840119
	O	5.21253	8.14342	8.39444	-0.77788	0.519474	-0.353623
	N	4.11896	11.8573	8.61216	0.821986	-0.353713	-0.325039	-0.305903
	O	4.38329	11.4372	8.67253	0.528665	-0.840198	0.120754
	O	3.83376	11.771	8.21064	-0.570403	-0.172512	-0.803044
	O	4.12747	0.314305	8.68633	0.0170173	0.98879	0.148339
	O	3.69248	11.7467	8.84857	-0.85295	-0.221158	0.472826
	N	5.12211	10.6396	7.46377	0.0329842	0.188133	-0.791731	-0.580242
	O	4.89553	10.2	7.39047	-0.453176	-0.879284	-0.146595
	O	5.59839	10.7339	7.58324	0.952548	0.188562	0.238947
	O	4.96894	11.1036	7.56987	-0.306354	0.927963	0.212205
	O	5.00793	10.6307	6.97706	-0.228358	-0.0178052	-0.973414
	N	9.74144	7.9532	4.77332	0.426718	-0.805582	-0.0127068	-0.410839
	O	9.72317	7.63967	5.16238	-0.0365529	-0.627058	0.778115
	O	9.27881	7.91907	4.58676	-0.925269	-0.0682484	-0.373121
	O	10.0722	7.72982	4.47221	0.661612	-0.446761	-0.602224
	O	9.85361	8.32436	5.08901	0.224326	0.742324	0.631373
	N	3.99146	11.5936	2.05818	-0.490486	-0.366299	0.401045	0.681477
	O	4.22238	11.1739	1.91493	0.461843	-0.839417	-0.286496
	O	4.3939	11.8713	2.16261	0.804884	0.555466	0.20885
	O	3.99262	11.7552	2.53135	0.00233263	0.323172	0.946337
	O	3.52384	11.7625	2.0053	-0.935236	0.337856	-0.105772
	N	9.1474	5.82807	5.439	-0.455535	0.0703318	0.841715	-0.281172
	O	9.04013	6.15954	5.79765	-0.214552	0.662926	0.717284
	O	9.5291	5.74891	5.1259	0.763404	-0.158324	-0.626217
	O	8.73147	6.01107	5.23041	-0.831861	0.366	-0.417195
	O	8.88435	5.45775	5.64796	-0.52611	-0.740645	0.417915
	N	2.91821	3.41158	11.3589	0.617339	-0.180291	-0.588854	-0.489528
	O	2.97319	2.96455	11.576	0.109968	-0.894068	0.434222
	O	3.07244	3.40496	10.8833	0.308463	-0.0132323	-0.951144
	O	2.99449	3.84917	11.5885	0.152565	0.875174	0.459124
	O	2.43268	3.3953	11.4772	-0.97106	-0.0325506	0.236609
	N	9.86767	2.31446	10.6295	0.582064	0.554832	0.590926	0.0645681
	O	9.85749	2.80537	10.5352	-0.0203555	0.981807	-0.188787
	O	9.44829	2.29674	10.9012	-0.838756	-0.0354454	0.543352
	O	10.3445	2.167	10.6592	0.953671	-0.294935	0.0593695
	O	9.79993	2.14754	10.1631	-0.135478	-0.333849	-0.93284
	N	6.18183	0.249765	10.9802	-0.701034	-0.0493646	-0.387665	-0.596515
	O	6.12547	0.4771	10.5385	-0.11271	0.454669	-0.8835
	O	6.07881	11.8351	11.1676	-0.206042	-0.903934	0.374766
	O	5.92615	0.410708	11.3786	-0.511362	0.321886	0.796805
	O	6.6697	0.143099	11.0048	0.975748	-0.213332	0.0490441
	N	8.4989	5.88512	0.395351	-0.0957331	-0.402771	-0.818156	-0.399039
	O	8.19519	6.16725	0.674926	-0.607419	0.564265	0.559149
	O	8.76246	5.46189	0.43296	0.527116	-0.846458	0.0752171
	O	8.8521	6.23665	0.436208	0.706411	0.70307	0.0817136
	O	8.42813	5.78114	11.9488	-0.141545	-0.207961	-0.967841
	N	1.5896	7.30415	0.603476	0.828195	-0.379933	-0.352345	-0.213534
	O	1.99758	7.11763	0.824308	0.815956	-0.373025	0.441666
	O	1.51141	7.03708	0.18807	-0.156393	-0.534129	-0.830811
	O	1.71639	7.71125	0.342333	0.253569	0.8142	-0.522285
	O	1.21412	7.21184	0.920484	-0.750962	-0.184605	0.634017
	N	9.18274	11.2248	6.18146	-0.236902	-0.800324	0.332142	-0.439365
	O	9.31032	11.3519	6.6479	0.255166	0.254257	0.932868
	O	8.91978	11.6002	5.98164	-0.525912	0.750796	-0.399652
	O	8.94001	10.7942	6.10638	-0.485454	-0.861271	-0.150156
	O	9.64005	11.163	5.98897	0.914619	-0.123523	-0.384985
	N	7.9444	10.3913	3.75872	-0.299358	0.227276	-0.910525	-0.172263
	O	7.48919	10.1871	3.79165	-0.910417	-0.408418	0.0658538
	O	7.91757	10.3102	4.25136	-0.0536554	-0.162302	0.985281
	O	7.91498	10.8806	3.66018	-0.0588392	0.97862	-0.197079
	O	8.15761	10.2002	3.3488	0.426413	-0.382152	-0.819836
	N	8.52472	6.76566	8.61563	0.617559	0.136044	-0.457871	0.624873
	O	8.46386	7.25358	8.70636	-0.121707	0.975836	0.181468
	O	8.57782	6.83213	8.12292	0.106209	0.132949	-0.985416
	O	8.10296	6.50182	8.56552	-0.843518	-0.527668	-0.100216
	O	8.57309	6.43685	8.98918	0.0967499	-0.657614	0.747117
	N	7.28697	9.74373	5.76936	0.541214	0.620646	0.450797	-0.344482
	O	7.51427	9.93673	5.36801	0.454607	0.385998	-0.802707
	O	7.1678	10.0697	6.12924	-0.238339	0.652035	0.719753
	O	7.73893	9.57001	5.89406	0.903928	-0.347432	0.24941
	O	6.99037	9.36604	5.63015	-0.593205	-0.755375	-0.278418
	N	1.23039	10.5825	0.579389	0.582128	-0.236357	-0.761981	0.156997
	O	1.44322	10.7945	0.979099	0.425671	0.423948	0.79942
	O	1.54263	10.2612	0.357408	0.624489	-0.642581	-0.443963
	O	1.09488	10.7893	0.144806	-0.271024	0.413637	-0.869167
	O	0.925704	10.318	0.874687	-0.609368	-0.529025	0.590595
	N	2.41513	5.42436	7.41148	-0.00448776	-0.162958	-0.505349	0.847377
	O	2.07479	5.63952	7.11505	-0.680683	0.430334	-0.592861
	O	2.79676	5.72028	7.28192	0.76327	0.591836	-0.259131
	O	2.4813	4.97113	7.21097	0.132354	-0.90645	-0.401037
	O	2.1568	5.49886	7.83305	-0.516659	0.149011	0.843125
	N	5.02262	7.92832	1.82906	-0.184333	0.443911	-0.745879	0.461117
	O	4.59143	7.68698	1.90541	-0.862381	-0.482683	0.152694
	O	5.04489	8.42138	1.74906	0.0445434	0.98611	-0.16001
	O	4.83693	7.95458	1.36556	-0.371385	0.0525058	-0.926993
	O	5.28976	7.71039	2.19119	0.534284	-0.435864	0.724267
	N	7.42139	7.50426	1.44618	0.236102	0.231247	0.571999	-0.750732
	O	7.13403	7.54649	1.03919	-0.574721	0.084468	-0.813979
	O	7.63791	7.89374	1.67294	0.433038	0.778966	0.453531
	O	7.63915	7.1374	1.1854	0.435511	-0.733701	-0.521548
	O	7.23512	7.30836	1.8668	-0.372546	-0.39179	0.841255
	N	6.18578	2.64154	11.9417	0.672765	0.264925	0.431227	-0.539671
	O	6.13546	2.75394	11.4571	-0.100633	0.224801	-0.969194
	O	6.04722	3.10881	0.0159243	-0.277123	0.934543	0.223232
	O	6.66822	2.55216	11.8454	0.96489	-0.178752	-0.192446
	O	5.94031	2.26653	0.125922	-0.490936	-0.75002	0.443229
	N	8.26745	5.48107	10.3842	0.776898	0.326964	-0.391008	-0.369644
	O	8.60088	5.11698	10.4633	0.666867	-0.728188	0.158212
	O	8.38298	5.7173	9.95895	0.231059	0.472445	-0.850534
	O	8.28095	5.5784	10.8745	0.0269968	0.194653	0.980501
	O	7.98382	5.20667	10.0772	-0.567261	-0.548817	-0.614015
	N	5.7182	1.30461	9.09837	-0.603329	0.118375	0.725049	0.310299
	O	5.75167	1.04736	9.5258	0.0669311	-0.5145	0.854874
	O	6.02805	1.32933	8.70673	0.619701	0.0494383	-0.783279
	O	5.74712	1.78769	9.22405	0.0578291	0.966163	0.251367
	O	5.38564	1.0956	8.78899	-0.665135	-0.418023	-0.618751
	N	1.05269	2.86456	11.9001	-0.0383451	0.925689	-0.335586	0.17033
	O	1.05511	2.61151	0.293946	0.00483869	-0.506115	0.862452
	O	0.687027	3.19058	12.0001	-0.731324	0.652038	0.200026
	O	0.828561	2.51018	11.6277	-0.448256	-0.708768	-0.544714
	O	1.48506	3.10186	11.8179	0.864732	0.474595	-0.164308
	N	7.5732	10.8663	1.01811	-0.4896	0.5496	0.299616	-0.607011
	O	7.82833	11.2938	0.971951	0.510267	0.855047	-0.09232
	O	7.7346	10.4906	1.30592	0.322803	-0.751313	0.57561
	O	7.19098	10.8241	0.69854	-0.764443	-0.0844151	-0.639141
	O	7.40508	11.0935	1.43058	-0.336241	0.454344	0.824933
	N	2.83196	7.58511	3.60587	0.0304719	0.0691589	-0.93507	-0.346312
	O	2.37468	7.48148	3.77952	-0.914563	-0.207276	0.347291
	O	3.17437	7.3418	3.87707	0.684833	-0.486623	0.542403
	O	2.5888	8.01726	3.54165	-0.486315	0.864294	-0.128429
	O	2.9545	7.40472	3.15593	0.245079	-0.360789	-0.899871
	N	8.38707	10.6317	9.23667	-0.378232	0.0670603	-0.517081	-0.764899
	O	8.11005	10.6864	8.82403	-0.554034	0.109373	-0.825278
	O	8.3937	10.133	9.27145	0.0132617	-0.997491	0.0695471
	O	8.26545	10.8693	9.6595	-0.243242	0.475077	0.845657
	O	8.79616	10.8267	9.0254	0.818184	0.389921	-0.422535
	N	3.04048	2.93964	2.3041	-0.762475	-0.493619	-0.237739	-0.34417
	O	3.00212	3.43685	2.34027	-0.0767203	0.994425	0.072333
	O	2.63521	2.65711	2.22706	-0.810539	-0.565052	-0.154091
	O	3.17531	2.83062	2.77308	0.269654	-0.218028	0.93795
	O	3.19846	2.61429	1.95886	0.315956	-0.650682	-0.690496
	N	3.98835	0.0325743	4.24428	-0.195272	0.466021	0.751164	-0.424789
	O	3.83489	0.507525	4.27383	-0.306914	0.949901	0.0590947
	O	4.24008	11.7459	4.53004	0.50347	-0.647987	0.571516
	O	4.01333	11.9195	3.76812	0.0499662	-0.30095	-0.95233
	O	3.55124	11.829	4.27448	-0.874224	-0.481754	0.0603851
	N	3.38805	5.0236	0.403709	-0.610255	0.440185	-0.656507	0.0531514
	O	3.22784	4.70608	0.0522622	-0.320412	-0.635041	-0.702893